rohanberiwal@RichieRich:/mnt/c/Users/rohan/qe-silicon$ cat Si.scf.out

     Program PWSCF v.6.7MaX starts on 20Apr2025 at 14: 0: 0

     This program is part of the open-source Quantum ESPRESSO suite
     for quantum simulation of materials; please cite
         "P. Giannozzi et al., J. Phys.:Condens. Matter 21 395502 (2009);
         "P. Giannozzi et al., J. Phys.:Condens. Matter 29 465901 (2017);
          URL http://www.quantum-espresso.org",
     in publications or presentations arising from this work. More details at
     http://www.quantum-espresso.org/quote

     Parallel version (MPI), running on     1 processors

     MPI processes distributed on     1 nodes
     Waiting for input...
     Reading input from standard input

     Current dimensions of program PWSCF are:
     Max number of different atomic species (ntypx) = 10
     Max number of k-points (npk) =  40000
     Max angular momentum in pseudopotentials (lmaxx) =  3

     Subspace diagonalization in iterative solution of the eigenvalue problem:
     a serial algorithm will be used


     G-vector sticks info
     --------------------
     sticks:   dense  smooth     PW     G-vecs:    dense   smooth      PW
     Sum         163     163     61                 1459     1459     331



     bravais-lattice index     =            2
     lattice parameter (alat)  =      10.2600  a.u.
     unit-cell volume          =     270.0114 (a.u.)^3
     number of atoms/cell      =            2
     number of atomic types    =            1
     number of electrons       =         8.00
     number of Kohn-Sham states=            4
     kinetic-energy cutoff     =      12.0000  Ry
     charge density cutoff     =      48.0000  Ry
     scf convergence threshold =      1.0E-08
     mixing beta               =       0.7000
     number of iterations used =            8  plain     mixing
     Exchange-correlation= SLA  PZ   NOGX NOGC
                           (   1   1   0   0   0   0   0)

     celldm(1)=  10.260000  celldm(2)=   0.000000  celldm(3)=   0.000000
     celldm(4)=   0.000000  celldm(5)=   0.000000  celldm(6)=   0.000000

     crystal axes: (cart. coord. in units of alat)
               a(1) = (  -0.500000   0.000000   0.500000 )
               a(2) = (   0.000000   0.500000   0.500000 )
               a(3) = (  -0.500000   0.500000   0.000000 )

     reciprocal axes: (cart. coord. in units 2 pi/alat)
               b(1) = ( -1.000000 -1.000000  1.000000 )
               b(2) = (  1.000000  1.000000  1.000000 )
               b(3) = ( -1.000000  1.000000 -1.000000 )


     PseudoPot. # 1 for Si read from file:
     ./Si.pz-vbc.UPF
     MD5 check sum: 9f25e6ff280f3123e9b3a84715b2e9c9
     Pseudo is Norm-conserving, Zval =  4.0
     Generated by new atomic code, or converted to UPF format
     Using radial grid of  431 points,  2 beta functions with:
                l(1) =   0
                l(2) =   1

     atomic species   valence    mass     pseudopotential
        Si             4.00    28.08550     Si( 1.00)

      6 Sym. Ops. (no inversion) found


                                    s                        frac. trans.

      isym =  1     identity

 cryst.   s( 1) = (     1          0          0      )
                  (     0          1          0      )
                  (     0          0          1      )

 cart.    s( 1) = (  1.0000000  0.0000000  0.0000000 )
                  (  0.0000000  1.0000000  0.0000000 )
                  (  0.0000000  0.0000000  1.0000000 )


      isym =  2     120 deg rotation - cart. axis [-1,-1,-1]

 cryst.   s( 2) = (    -1          0          1      )
                  (    -1          1          0      )
                  (    -1          0          0      )

 cart.    s( 2) = (  0.0000000  1.0000000  0.0000000 )
                  (  0.0000000  0.0000000  1.0000000 )
                  (  1.0000000  0.0000000  0.0000000 )


      isym =  3     120 deg rotation - cart. axis [1,1,1]

 cryst.   s( 3) = (     0          0         -1      )
                  (     0          1         -1      )
                  (     1          0         -1      )

 cart.    s( 3) = (  0.0000000  0.0000000  1.0000000 )
                  (  1.0000000  0.0000000  0.0000000 )
                  (  0.0000000  1.0000000  0.0000000 )


      isym =  4     inv. 180 deg rotation - cart. axis [1,-1,0]

 cryst.   s( 4) = (     1          0         -1      )
                  (     0          1         -1      )
                  (     0          0         -1      )

 cart.    s( 4) = (  0.0000000  1.0000000  0.0000000 )
                  (  1.0000000  0.0000000  0.0000000 )
                  (  0.0000000  0.0000000  1.0000000 )


      isym =  5     inv. 180 deg rotation - cart. axis [-1,0,1]

 cryst.   s( 5) = (    -1          0          0      )
                  (    -1          1          0      )
                  (    -1          0          1      )

 cart.    s( 5) = (  0.0000000  0.0000000  1.0000000 )
                  (  0.0000000  1.0000000  0.0000000 )
                  (  1.0000000  0.0000000  0.0000000 )


      isym =  6     inv. 180 deg rotation - cart. axis [0,1,-1]

 cryst.   s( 6) = (     0          0          1      )
                  (     0          1          0      )
                  (     1          0          0      )

 cart.    s( 6) = (  1.0000000  0.0000000  0.0000000 )
                  (  0.0000000  0.0000000  1.0000000 )
                  (  0.0000000  1.0000000  0.0000000 )


     point group C_3v (3m)
     there are  3 classes
     the character table:

       E     2C3   3s_v
A_1    1.00  1.00  1.00
A_2    1.00  1.00 -1.00
E      2.00 -1.00  0.00

     the symmetry operations in each class and the name of the first element:

     E        1
          identity
     2C3      2    3
          120 deg rotation - cart. axis [-1,-1,-1]
     3s_v     4    5    6
          inv. 180 deg rotation - cart. axis [1,-1,0]

   Cartesian axes

     site n.     atom                  positions (alat units)
         1           Si  tau(   1) = (   0.0000000   0.0000000   0.0000000  )
         2           Si  tau(   2) = (   0.4726157   0.4726157   0.4726157  )

   Crystallographic axes

     site n.     atom                  positions (cryst. coord.)
         1           Si  tau(   1) = (  0.0000000  0.0000000  0.0000000  )
         2           Si  tau(   2) = ( -0.4726157  1.4178471 -0.4726157  )

     number of k points=    32
                       cart. coord. in units 2pi/alat
        k(    1) = (   0.0000000   0.0000000   0.0000000), wk =   0.0092593
        k(    2) = (  -0.1666667   0.1666667  -0.1666667), wk =   0.0555556
        k(    3) = (  -0.3333333   0.3333333  -0.3333333), wk =   0.0555556
        k(    4) = (   0.5000000  -0.5000000   0.5000000), wk =   0.0277778
        k(    5) = (   0.0000000   0.3333333   0.0000000), wk =   0.0555556
        k(    6) = (  -0.1666667   0.5000000  -0.1666667), wk =   0.0555556
        k(    7) = (   0.6666667  -0.3333333   0.6666667), wk =   0.0555556
        k(    8) = (   0.5000000  -0.1666667   0.5000000), wk =   0.0555556
        k(    9) = (   0.3333333   0.0000000   0.3333333), wk =   0.0555556
        k(   10) = (   0.0000000   0.6666667   0.0000000), wk =   0.0555556
        k(   11) = (   0.8333333  -0.1666667   0.8333333), wk =   0.0555556
        k(   12) = (   0.6666667  -0.0000000   0.6666667), wk =   0.0555556
        k(   13) = (   0.0000000  -1.0000000   0.0000000), wk =   0.0277778
        k(   14) = (   0.6666667  -0.3333333   1.0000000), wk =   0.1111111
        k(   15) = (   0.5000000  -0.1666667   0.8333333), wk =   0.1111111
        k(   16) = (  -0.3333333  -1.0000000   0.0000000), wk =   0.1111111
        k(   17) = (  -0.1666667  -0.1666667  -0.1666667), wk =   0.0185185
        k(   18) = (  -0.3333333  -0.3333333  -0.3333333), wk =   0.0185185
        k(   19) = (   0.5000000   0.5000000   0.5000000), wk =   0.0092593
        k(   20) = (   0.5000000   0.1666667  -0.1666667), wk =   0.1111111
        k(   21) = (  -0.5000000  -0.1666667  -0.1666667), wk =   0.0555556
        k(   22) = (  -0.3333333  -0.6666667   0.6666667), wk =   0.1111111
        k(   23) = (   0.3333333   0.6666667   0.6666667), wk =   0.0555556
        k(   24) = (  -0.1666667  -0.5000000   0.5000000), wk =   0.1111111
        k(   25) = (   0.1666667   0.5000000   0.5000000), wk =   0.0555556
        k(   26) = (   0.0000000  -0.3333333   0.3333333), wk =   0.0555556
        k(   27) = (  -0.1666667  -0.8333333   0.8333333), wk =   0.1111111
        k(   28) = (   0.1666667   0.8333333   0.8333333), wk =   0.0555556
        k(   29) = (   0.0000000  -0.6666667   0.6666667), wk =   0.0555556
        k(   30) = (  -0.3333333  -0.6666667   1.0000000), wk =   0.1111111
        k(   31) = (   0.1666667   0.5000000   0.8333333), wk =   0.0555556
        k(   32) = (  -0.8333333  -0.1666667   0.5000000), wk =   0.0555556

                       cryst. coord.
        k(    1) = (   0.0000000   0.0000000   0.0000000), wk =   0.0092593
        k(    2) = (   0.0000000   0.0000000   0.1666667), wk =   0.0555556
        k(    3) = (   0.0000000   0.0000000   0.3333333), wk =   0.0555556
        k(    4) = (   0.0000000   0.0000000  -0.5000000), wk =   0.0277778
        k(    5) = (   0.0000000   0.1666667   0.1666667), wk =   0.0555556
        k(    6) = (   0.0000000   0.1666667   0.3333333), wk =   0.0555556
        k(    7) = (   0.0000000   0.1666667  -0.5000000), wk =   0.0555556
        k(    8) = (   0.0000000   0.1666667  -0.3333333), wk =   0.0555556
        k(    9) = (   0.0000000   0.1666667  -0.1666667), wk =   0.0555556
        k(   10) = (   0.0000000   0.3333333   0.3333333), wk =   0.0555556
        k(   11) = (   0.0000000   0.3333333  -0.5000000), wk =   0.0555556
        k(   12) = (   0.0000000   0.3333333  -0.3333333), wk =   0.0555556
        k(   13) = (   0.0000000  -0.5000000  -0.5000000), wk =   0.0277778
        k(   14) = (   0.1666667   0.3333333  -0.5000000), wk =   0.1111111
        k(   15) = (   0.1666667   0.3333333  -0.3333333), wk =   0.1111111
        k(   16) = (   0.1666667  -0.5000000  -0.3333333), wk =   0.1111111
        k(   17) = (   0.0000000  -0.1666667   0.0000000), wk =   0.0185185
        k(   18) = (   0.0000000  -0.3333333   0.0000000), wk =   0.0185185
        k(   19) = (   0.0000000   0.5000000   0.0000000), wk =   0.0092593
        k(   20) = (  -0.3333333   0.0000000  -0.1666667), wk =   0.1111111
        k(   21) = (   0.1666667  -0.1666667   0.1666667), wk =   0.0555556
        k(   22) = (   0.5000000   0.0000000  -0.1666667), wk =   0.1111111
        k(   23) = (   0.1666667   0.6666667   0.1666667), wk =   0.0555556
        k(   24) = (   0.3333333   0.0000000  -0.1666667), wk =   0.1111111
        k(   25) = (   0.1666667   0.5000000   0.1666667), wk =   0.0555556
        k(   26) = (   0.1666667   0.0000000  -0.1666667), wk =   0.0555556
        k(   27) = (   0.5000000   0.0000000  -0.3333333), wk =   0.1111111
        k(   28) = (   0.3333333   0.8333333   0.3333333), wk =   0.0555556
        k(   29) = (   0.3333333   0.0000000  -0.3333333), wk =   0.0555556
        k(   30) = (   0.6666667   0.1666667  -0.1666667), wk =   0.1111111
        k(   31) = (   0.3333333   0.6666667   0.1666667), wk =   0.0555556
        k(   32) = (   0.6666667   0.1666667   0.3333333), wk =   0.0555556

     Dense  grid:     1459 G-vectors     FFT dimensions: (  15,  15,  15)

     Dynamical RAM for                 wfc:       0.01 MB

     Dynamical RAM for     wfc (w. buffer):       0.38 MB

     Dynamical RAM for           str. fact:       0.02 MB

     Dynamical RAM for           local pot:       0.00 MB

     Dynamical RAM for          nlocal pot:       0.02 MB

     Dynamical RAM for                qrad:       0.05 MB

     Dynamical RAM for          rho,v,vnew:       0.14 MB

     Dynamical RAM for               rhoin:       0.05 MB

     Dynamical RAM for            rho*nmix:       0.36 MB

     Dynamical RAM for           G-vectors:       0.09 MB

     Dynamical RAM for          h,s,v(r/c):       0.00 MB

     Dynamical RAM for          <psi|beta>:       0.00 MB

     Dynamical RAM for                 psi:       0.02 MB

     Dynamical RAM for                hpsi:       0.02 MB

     Dynamical RAM for      wfcinit/wfcrot:       0.05 MB

     Estimated static dynamical RAM per process >       1.29 MB

     Estimated max dynamical RAM per process >       1.34 MB

     Initial potential from superposition of free atoms

     starting charge    7.99901, renormalised to    8.00000
     Starting wfcs are    8 randomized atomic wfcs

     total cpu time spent up to now is        0.1 secs

     Self-consistent Calculation

     iteration #  1     ecut=    12.00 Ry     beta= 0.70
     Davidson diagonalization with overlap
     ethr =  1.00E-02,  avg # of iterations =  2.0

     Threshold (ethr) on eigenvalues was too large:
     Diagonalizing with lowered threshold

     Davidson diagonalization with overlap
     ethr =  2.43E-04,  avg # of iterations =  2.2

     total cpu time spent up to now is        0.2 secs

     total energy              =     -15.67317157 Ry
     estimated scf accuracy    <       0.02115819 Ry

     iteration #  2     ecut=    12.00 Ry     beta= 0.70
     Davidson diagonalization with overlap
     ethr =  2.64E-04,  avg # of iterations =  2.0

     total cpu time spent up to now is        0.3 secs

     total energy              =     -15.67592140 Ry
     estimated scf accuracy    <       0.00102203 Ry

     iteration #  3     ecut=    12.00 Ry     beta= 0.70
     Davidson diagonalization with overlap
     ethr =  1.28E-05,  avg # of iterations =  3.0

     total cpu time spent up to now is        0.3 secs

     total energy              =     -15.67617460 Ry
     estimated scf accuracy    <       0.00010890 Ry

     iteration #  4     ecut=    12.00 Ry     beta= 0.70
     Davidson diagonalization with overlap
     ethr =  1.36E-06,  avg # of iterations =  2.9

     total cpu time spent up to now is        0.4 secs

     total energy              =     -15.67620735 Ry
     estimated scf accuracy    <       0.00001852 Ry

     iteration #  5     ecut=    12.00 Ry     beta= 0.70
     Davidson diagonalization with overlap
     ethr =  2.31E-07,  avg # of iterations =  2.7

     total cpu time spent up to now is        0.4 secs

     total energy              =     -15.67621221 Ry
     estimated scf accuracy    <       0.00000015 Ry

     iteration #  6     ecut=    12.00 Ry     beta= 0.70
     Davidson diagonalization with overlap
     ethr =  1.86E-09,  avg # of iterations =  5.8

     total cpu time spent up to now is        0.4 secs

     End of self-consistent calculation

          k = 0.0000 0.0000 0.0000 (   169 PWs)   bands (ev):

    -5.2385   6.4709   6.4709   6.7202

     occupation numbers
     1.0000   1.0000   1.0000   1.0000

          k =-0.1667 0.1667-0.1667 (   172 PWs)   bands (ev):

    -4.8557   3.8554   6.3616   6.5869

     occupation numbers
     1.0000   1.0000   1.0000   1.0000

          k =-0.3333 0.3333-0.3333 (   183 PWs)   bands (ev):

    -3.7053   0.7869   6.3050   6.5780

     occupation numbers
     1.0000   1.0000   1.0000   1.0000

          k = 0.5000-0.5000 0.5000 (   180 PWs)   bands (ev):

    -1.9807  -1.5997   6.3960   6.7781

     occupation numbers
     1.0000   1.0000   1.0000   1.0000

          k = 0.0000 0.3333 0.0000 (   181 PWs)   bands (ev):

    -4.7346   4.4024   5.4888   5.5756

     occupation numbers
     1.0000   1.0000   1.0000   1.0000

          k =-0.1667 0.5000-0.1667 (   190 PWs)   bands (ev):

    -3.8493   1.9159   5.0442   5.8923

     occupation numbers
     1.0000   1.0000   1.0000   1.0000

          k = 0.6667-0.3333 0.6667 (   190 PWs)   bands (ev):

    -2.2298  -0.7063   4.5405   5.2397

     occupation numbers
     1.0000   1.0000   1.0000   1.0000

          k = 0.5000-0.1667 0.5000 (   190 PWs)   bands (ev):

    -2.8490   0.0995   3.9379   6.0852

     occupation numbers
     1.0000   1.0000   1.0000   1.0000

          k = 0.3333 0.0000 0.3333 (   184 PWs)   bands (ev):

    -4.2315   2.5478   4.4557   7.0463

     occupation numbers
     1.0000   1.0000   1.0000   1.0000

          k = 0.0000 0.6667 0.0000 (   194 PWs)   bands (ev):

    -3.2559   2.6983   3.6705   4.2774

     occupation numbers
     1.0000   1.0000   1.0000   1.0000

          k = 0.8333-0.1667 0.8333 (   192 PWs)   bands (ev):

    -1.9936   0.7863   2.2921   4.1914

     occupation numbers
     1.0000   1.0000   1.0000   1.0000

          k = 0.6667-0.0000 0.6667 (   186 PWs)   bands (ev):

    -1.4422  -0.2968   1.8975   4.8331

     occupation numbers
     1.0000   1.0000   1.0000   1.0000

          k = 0.0000-1.0000 0.0000 (   190 PWs)   bands (ev):

    -1.6140   0.7770   2.5839   3.8296

     occupation numbers
     1.0000   1.0000   1.0000   1.0000

          k = 0.6667-0.3333 1.0000 (   189 PWs)   bands (ev):

    -2.7361   0.9208   3.1554   4.1769

     occupation numbers
     1.0000   1.0000   1.0000   1.0000

          k = 0.5000-0.1667 0.8333 (   194 PWs)   bands (ev):

    -1.2012  -0.7451   2.9523   3.0945

     occupation numbers
     1.0000   1.0000   1.0000   1.0000

          k =-0.3333-1.0000 0.0000 (   196 PWs)   bands (ev):

    -1.1527   0.3759   1.5595   2.7674

     occupation numbers
     1.0000   1.0000   1.0000   1.0000

          k =-0.1667-0.1667-0.1667 (   172 PWs)   bands (ev):

    -4.8573   3.9514   6.3970   6.3970

     occupation numbers
     1.0000   1.0000   1.0000   1.0000

          k =-0.3333-0.3333-0.3333 (   183 PWs)   bands (ev):

    -3.7348   0.8984   6.4355   6.4355

     occupation numbers
     1.0000   1.0000   1.0000   1.0000

          k = 0.5000 0.5000 0.5000 (   180 PWs)   bands (ev):

    -2.3292  -1.1733   6.6683   6.6683

     occupation numbers
     1.0000   1.0000   1.0000   1.0000

          k = 0.5000 0.1667-0.1667 (   190 PWs)   bands (ev):

    -3.8548   1.9570   4.9954   5.6486

     occupation numbers
     1.0000   1.0000   1.0000   1.0000

          k =-0.5000-0.1667-0.1667 (   190 PWs)   bands (ev):

    -3.8660   2.0534   5.0700   5.3327

     occupation numbers
     1.0000   1.0000   1.0000   1.0000

          k =-0.3333-0.6667 0.6667 (   190 PWs)   bands (ev):

    -2.2352  -0.6920   4.3329   5.5496

     occupation numbers
     1.0000   1.0000   1.0000   1.0000

          k = 0.3333 0.6667 0.6667 (   190 PWs)   bands (ev):

    -2.3647  -0.4768   4.3860   5.2868

     occupation numbers
     1.0000   1.0000   1.0000   1.0000

          k =-0.1667-0.5000 0.5000 (   190 PWs)   bands (ev):

    -2.8348   0.0636   3.8585   6.3906

     occupation numbers
     1.0000   1.0000   1.0000   1.0000

          k = 0.1667 0.5000 0.5000 (   190 PWs)   bands (ev):

    -2.8994   0.2216   3.8525   6.1535

     occupation numbers
     1.0000   1.0000   1.0000   1.0000

          k = 0.0000-0.3333 0.3333 (   184 PWs)   bands (ev):

    -4.2198   2.4529   4.4583   7.4875

     occupation numbers
     1.0000   1.0000   1.0000   1.0000

          k =-0.1667-0.8333 0.8333 (   192 PWs)   bands (ev):

    -1.9995   0.8760   2.1151   4.3766

     occupation numbers
     1.0000   1.0000   1.0000   1.0000

          k = 0.1667 0.8333 0.8333 (   192 PWs)   bands (ev):

    -2.0418   1.0616   2.0239   4.1990

     occupation numbers
     1.0000   1.0000   1.0000   1.0000

          k = 0.0000-0.6667 0.6667 (   186 PWs)   bands (ev):

    -1.2412  -0.5718   1.8950   5.0150

     occupation numbers
     1.0000   1.0000   1.0000   1.0000

          k =-0.3333-0.6667 1.0000 (   189 PWs)   bands (ev):

    -2.7658   1.0499   3.1511   4.0349

     occupation numbers
     1.0000   1.0000   1.0000   1.0000

          k = 0.1667 0.5000 0.8333 (   194 PWs)   bands (ev):

    -1.4759  -0.3650   2.7287   3.2085

     occupation numbers
     1.0000   1.0000   1.0000   1.0000

          k =-0.8333-0.1667 0.5000 (   194 PWs)   bands (ev):

    -1.0628  -0.8866   2.6598   3.4115

     occupation numbers
     1.0000   1.0000   1.0000   1.0000

     highest occupied level (ev):     7.4875

!    total energy              =     -15.67621283 Ry
     estimated scf accuracy    <          9.3E-09 Ry

     The total energy is the sum of the following terms:
     one-electron contribution =       6.12017315 Ry
     hartree contribution      =       0.44419092 Ry
     xc contribution           =      -4.59969763 Ry
     ewald contribution        =     -17.64087926 Ry

     convergence has been achieved in   6 iterations

     Writing output data file ./tmp/silicon.save/

     init_run     :      0.11s CPU      0.05s WALL (       1 calls)
     electrons    :      0.38s CPU      0.37s WALL (       1 calls)

     Called by init_run:
     wfcinit      :      0.11s CPU      0.03s WALL (       1 calls)
     wfcinit:atom :      0.00s CPU      0.00s WALL (      32 calls)
     wfcinit:wfcr :      0.10s CPU      0.03s WALL (      32 calls)
     potinit      :      0.00s CPU      0.00s WALL (       1 calls)
     hinit0       :      0.00s CPU      0.00s WALL (       1 calls)

     Called by electrons:
     c_bands      :      0.36s CPU      0.34s WALL (       7 calls)
     sum_band     :      0.02s CPU      0.01s WALL (       7 calls)
     v_of_rho     :      0.00s CPU      0.00s WALL (       7 calls)
     v_h          :      0.00s CPU      0.00s WALL (       7 calls)
     v_xc         :      0.00s CPU      0.00s WALL (       7 calls)
     mix_rho      :      0.00s CPU      0.00s WALL (       7 calls)

     Called by c_bands:
     init_us_2    :      0.01s CPU      0.01s WALL (     480 calls)
     cegterg      :      0.12s CPU      0.08s WALL (     224 calls)

     Called by sum_band:
     sum_band:wei :      0.00s CPU      0.00s WALL (       7 calls)
     sum_band:loo :      0.02s CPU      0.01s WALL (       7 calls)
     sum_band:buf :      0.00s CPU      0.00s WALL (     224 calls)
     sum_band:ini :      0.00s CPU      0.00s WALL (     224 calls)

     Called by *egterg:
     cdiaghg      :      0.10s CPU      0.03s WALL (     848 calls)
     cegterg:over :      0.01s CPU      0.00s WALL (     656 calls)
     cegterg:upda :      0.00s CPU      0.00s WALL (     656 calls)
     cegterg:last :      0.00s CPU      0.00s WALL (     527 calls)
     h_psi        :      0.09s CPU      0.06s WALL (     912 calls)
     g_psi        :      0.00s CPU      0.00s WALL (     656 calls)

     Called by h_psi:
     h_psi:calbec :      0.01s CPU      0.00s WALL (     912 calls)
     vloc_psi     :      0.08s CPU      0.05s WALL (     912 calls)
     add_vuspsi   :      0.01s CPU      0.00s WALL (     912 calls)

     General routines
     calbec       :      0.01s CPU      0.00s WALL (     912 calls)
     fft          :      0.00s CPU      0.00s WALL (      21 calls)
     ffts         :      0.00s CPU      0.00s WALL (       7 calls)
     fftw         :      0.06s CPU      0.04s WALL (    6708 calls)

     Parallel routines

     PWSCF        :      0.55s CPU      0.79s WALL


   This run was terminated on:  14: 0: 1  20Apr2025

=------------------------------------------------------------------------------=
   JOB DONE.
=------------------------------------------------------------------------------=
rohanberiwal@RichieRich:/mnt/c/Users/rohan/qe-silicon
